ITEM: TIMESTEP
8000
ITEM: NUMBER OF ATOMS
1250
ITEM: BOX BOUNDS ff ff ff
-0.0001 0.0013
-0.0001 0.0008
-0.0001 0.0015
ITEM: ATOMS id type type x y z ix iy iz vx vy vz fx fy fz omegax omegay omegaz radius 
630 1 1 0.000224208 3.15041e-05 3.13164e-05 0 0 0 -2.11682e-05 -2.03098e-06 -2.26486e-06 -1.34491e-10 -1.95614e-10 2.17694e-11 4.69082 -1.0329 0.115745 9e-06 
939 1 1 0.000530201 2.18569e-05 3.98514e-05 0 0 0 -0.0047106 0.00389244 -0.00210783 -3.94799e-10 3.98656e-10 -2.76659e-10 -0.461868 -0.519994 0.0749557 9e-06 
1037 1 1 0.000801414 9.82342e-06 3.85078e-05 0 0 0 0.0128386 -0.00116168 0.00114296 -2.92657e-10 -4.43882e-10 -6.14119e-10 -0.0929354 -0.0194308 1.14532 9e-06 
344 1 1 0.000955264 1.85547e-05 3.64742e-05 0 0 0 -0.000826103 -0.00430517 0.00123199 1.14926e-08 4.08064e-09 -7.62678e-08 0.269374 -5.27046 -9.13683 1.25e-05 
799 1 1 0.000972918 9.00444e-06 2.83521e-05 0 0 0 5.70001e-05 0.000309792 -0.000225082 1.4868e-09 -1.70952e-10 -7.94832e-10 0.426203 0.0373011 0.538337 9e-06 
806 1 1 0.000990118 2.68971e-05 3.58899e-05 0 0 0 -0.00967267 -0.028898 0.0414953 -6.13448e-10 -4.20615e-09 -6.00731e-09 3.23444 9.86229 7.76512 9e-06 
928 1 1 0.000990779 9.41369e-06 4.10562e-05 0 0 0 0.00188566 -0.0011031 -0.00071905 3.84421e-10 -5.1179e-10 -2.56154e-10 49.6834 -35.6983 190.507 9e-06 
1153 1 1 0.000209576 5.94738e-05 9.85604e-06 0 0 0 -2.00951e-06 -2.96951e-06 -3.3055e-06 1.69638e-10 -4.89381e-10 -9.36951e-11 0.661588 -0.455862 0.326687 9e-06 
312 1 1 0.000373948 6.2668e-05 2.22833e-05 0 0 0 -0.0799479 0.00834729 -0.0534947 0 0 -6.42063e-09 65.9711 221.362 -143.534 1.25e-05 
1222 1 1 0.000463082 5.3222e-05 9.07663e-06 0 0 0 -0.0247125 0.00382384 -0.00141009 0 0 -2.39649e-09 -3.38173 -19.5705 0.767261 9e-06 
693 1 1 0.000492173 5.11098e-05 8.99667e-06 0 0 0 0.016164 -0.00232865 4.56704e-06 -1.17712e-10 1.69581e-11 -1.79473e-11 0.21443 1.48843 -15.1848 9e-06 
136 1 1 0.000562615 6.69968e-05 4.02142e-05 0 0 0 -0.00451038 0.00200268 0.00206763 4.98233e-09 -2.18713e-09 -1.25281e-09 -0.402906 -1.35286 0.504951 1.5e-05 
518 1 1 0.000734715 6.50445e-05 3.2246e-05 0 0 0 -0.0109202 -0.00882256 -0.0176958 -1.45889e-09 -8.43024e-10 -4.89461e-09 0.107535 -0.393634 0.0690035 1.25e-05 
1171 1 1 0.000800866 5.41627e-05 2.99298e-05 0 0 0 -0.000193744 0.000404791 -0.000558197 1.62403e-09 3.75101e-09 2.66919e-09 4.51947 -30.9695 -10.7907 9e-06 
611 1 1 0.000782964 6.34124e-05 4.00095e-05 0 0 0 -0.0234022 0.00274461 0.00295176 1.20128e-09 -4.692e-09 3.316e-09 0.262297 -3.21729 -0.437022 9e-06 
562 1 1 0.000946742 0.00010848 4.33945e-05 0 0 0 -0.165805 0.0338608 0.0161101 0 0 -2.39649e-09 123.04 197.222 -376.438 9e-06 
418 1 1 0.000983166 5.46471e-05 3.69664e-05 0 0 0 -0.0193914 -0.0778604 -0.0115952 0 0 -6.42063e-09 18.678 -7.14328 15.912 1.25e-05 
797 1 1 0.000368411 0.000164321 2.87938e-05 0 0 0 -0.103766 0.0252455 0.0406129 7.13255e-09 -5.99755e-09 1.72752e-08 62.9142 -96.2402 230.212 9e-06 
406 1 1 0.000856086 0.000109572 3.84351e-05 0 0 0 0.00511995 0.00398502 -0.00563926 2.16248e-09 1.66833e-09 -2.52833e-09 -0.48121 0.550189 -0.0424948 1.25e-05 
610 1 1 0.000207585 0.000147068 1.12873e-05 0 0 0 -0.0125973 0.00924518 -8.15884e-05 3.83086e-10 3.64007e-10 -3.78115e-10 0.607249 0.886308 6.96701 9e-06 
222 1 1 0.000208543 0.000183253 1.2878e-05 0 0 0 -0.00230833 0.00105938 0.00101471 2.89101e-09 -1.29414e-09 -1.2108e-09 -0.364074 -1.95084 1.1385 1.25e-05 
779 1 1 0.000257217 0.000176474 1.31691e-05 0 0 0 -0.00247008 -0.000880975 -0.000633453 -3.30422e-10 -1.15449e-10 -9.12485e-11 0.234847 -0.903 0.334296 9e-06 
737 1 1 0.000263628 0.000150461 1.92796e-05 0 0 0 0.0130043 0.00759159 -0.0251423 0 0 -2.39649e-09 -6.66521 5.17463 9.69061 9e-06 
320 1 1 0.000286958 0.000144481 2.38809e-05 0 0 0 -0.00236778 0.00959639 -0.019712 -3.71837e-10 1.09524e-09 -5.76613e-09 -22.9784 53.6157 32.0354 1.25e-05 
465 1 1 0.000331231 0.000147326 2.26325e-05 0 0 0 0.0225909 -0.00398119 -0.00303942 -3.04475e-09 5.39535e-10 1.02617e-08 0.970187 6.06199 0.569176 1.25e-05 
489 1 1 0.000358525 0.000147188 1.84032e-05 0 0 0 -0.0730986 -0.0235095 0.0287165 8.74835e-09 3.48389e-08 3.57481e-08 24.8791 28.7271 91.2243 1.25e-05 
911 1 1 0.000380482 0.00014204 1.10252e-05 0 0 0 -0.0422258 0.0153686 0.0124419 4.93779e-09 1.94867e-09 -1.17169e-09 -7.6489 -15.3918 7.50814 9e-06 
1212 1 1 0.000423066 0.000144488 2.69163e-05 0 0 0 0.000373638 0.000422745 -6.06448e-05 -4.19737e-08 -2.19814e-08 4.69086e-08 34.8356 -80.6626 -6.35755 9e-06 
378 1 1 0.000441736 0.00015307 2.0599e-05 0 0 0 -0.00719023 -0.00335748 0.00936134 1.06697e-07 6.41629e-08 -1.66682e-07 4.53084 -22.286 4.0108 1.25e-05 
37 1 1 0.000493731 0.00014332 3.48242e-05 0 0 0 0.0571926 -0.00257643 0.0320166 -5.20745e-09 1.32128e-08 -3.72928e-09 -0.682328 3.06352 1.37547 1.5e-05 
1018 1 1 0.000720448 0.000144187 2.45537e-05 0 0 0 0.00850397 -0.0688594 -0.0412428 0 0 -2.39649e-09 -307.677 1153.78 -244.816 9e-06 
375 1 1 0.000759135 0.000140488 2.09647e-05 0 0 0 0.0209082 0.00693981 -0.0161434 -3.17326e-07 4.36724e-07 2.97804e-07 -34.4612 286.93 58.2831 1.25e-05 
1080 1 1 0.000829936 0.000152292 2.61913e-05 0 0 0 0.014377 0.00462751 -0.00581554 9.48223e-10 -6.24263e-10 2.37921e-10 -0.289682 1.29813 0.189743 9e-06 
636 1 1 0.000867855 0.000183253 1.64535e-05 0 0 0 0.012558 -0.0137622 -0.00859584 5.50595e-08 -6.07197e-08 -1.77396e-08 67.6108 -44.3428 -0.703947 9e-06 
306 1 1 7.25251e-05 0.000245942 5.00454e-05 0 0 0 -0.0036947 0.0891312 0.0361209 0 0 -6.42063e-09 -579.71 -94.7911 180.383 1.25e-05 
428 1 1 0.000151997 0.000181871 2.13403e-05 0 0 0 0.045939 -0.0367053 -0.0258182 8.61158e-08 -3.16036e-08 1.1664e-07 131.037 121.182 32.3387 1.25e-05 
274 1 1 0.000237836 0.00016926 6.9929e-05 0 0 0 0.0164524 -0.0653184 0.0744969 0 0 -6.42063e-09 1823.84 652.826 -650.88 1.25e-05 
75 1 1 0.000253427 0.000177775 3.93216e-05 0 0 0 -0.00899255 -0.0024916 0.00867344 2.22297e-09 4.52074e-09 -7.9359e-09 178.576 336.607 262.981 1.5e-05 
834 1 1 0.000234334 0.000187116 1.65371e-05 0 0 0 -0.00599705 7.4733e-05 -0.00255388 -6.92704e-10 -7.20869e-11 -3.5602e-10 -0.0786792 -0.711471 0.165548 9e-06 
460 1 1 0.000308824 0.000194042 2.49463e-05 0 0 0 -0.0629098 -0.0508717 -0.102335 -1.82078e-07 3.13724e-06 5.86247e-06 -441.157 587.374 1280.97 1.25e-05 
1091 1 1 0.000327955 0.000186713 1.67377e-05 0 0 0 0.0314892 -0.0227471 -0.0189712 0 0 -2.39649e-09 2.02619 2.77241 0.0198353 9e-06 
195 1 1 0.000453626 0.000193919 3.54243e-05 0 0 0 0.024314 0.0267738 0.0258443 9.74309e-09 -9.64101e-09 -1.38845e-09 -27.2289 44.3346 -74.9042 1.25e-05 
564 1 1 0.000416005 0.000212433 3.79285e-05 0 0 0 -0.0694525 -0.0613874 -0.0188121 0 0 -2.39649e-09 10.3899 -16.506 13.3925 9e-06 
198 1 1 0.000477722 0.000187827 3.27806e-05 0 0 0 0.0125415 -0.010627 -0.0127599 -1.11126e-08 5.23841e-10 -3.47363e-09 -160.809 -218.446 138.783 1.25e-05 
1136 1 1 0.00062342 0.000186587 2.55827e-05 0 0 0 -0.0200652 -0.0190988 -0.0195449 1.56958e-10 -1.43816e-09 -3.8814e-09 -39.4477 71.2573 -107.876 9e-06 
897 1 1 0.000873507 0.000193751 2.98304e-05 0 0 0 -0.0653654 0.00299136 0.00704499 -4.14014e-08 1.40834e-08 1.94079e-10 40.9471 -137.869 -56.9573 9e-06 
749 1 1 0.000959141 0.000199659 1.91398e-05 0 0 0 -0.00192113 -0.070579 -0.0135282 -9.70949e-10 -2.86321e-08 4.16257e-09 305.282 -155.542 525.02 9e-06 
25 1 1 0.000907146 0.000153884 3.80221e-05 0 0 0 0.00121474 -0.00771464 0.011237 -3.4129e-08 -1.4355e-07 4.18998e-08 -135.11 98.7864 118.201 1.5e-05 
180 1 1 9.02103e-05 0.000243685 2.44936e-05 0 0 0 -0.050181 0.0485659 -0.00894177 2.84509e-09 -1.14618e-09 -1.20173e-08 91.119 256.692 728.671 1.25e-05 
902 1 1 6.12791e-05 0.000261668 4.03582e-05 0 0 0 -0.0224639 0.0566647 -0.01139 0 0 -2.39649e-09 -537.511 -222.131 262.63 9e-06 
372 1 1 0.000114573 0.000249196 2.54849e-05 0 0 0 -0.0432263 0.0237828 -0.0172346 3.22649e-07 -1.09662e-06 4.70602e-07 -209.029 155.144 664.058 1.25e-05 
1020 1 1 0.000129293 0.000266037 1.22796e-05 0 0 0 0.000861516 -0.00360072 0.00533908 0 0 -2.39649e-09 1.93436 -14.2808 -5.70907 9e-06 
513 1 1 0.000222512 0.000271021 1.44378e-05 0 0 0 -0.0380913 -0.00571613 0.00385835 2.75508e-09 1.50294e-08 2.02366e-08 -0.625688 0.415678 -1.6326 1.25e-05 
421 1 1 0.000245493 0.000267205 2.46811e-05 0 0 0 -0.0225174 0.00369284 -0.0263783 0 0 -6.42063e-09 51.4743 24.6959 -106.653 1.25e-05 
798 1 1 0.000311512 0.000267012 9.93012e-06 0 0 0 0.0101905 0.00383566 -0.00527795 4.00225e-11 1.73133e-09 -7.4673e-10 -8.77349 -54.2902 -56.9358 9e-06 
1213 1 1 0.000312381 0.000227718 3.85309e-05 0 0 0 -0.0394799 0.0331779 -0.00687195 0 0 -2.39649e-09 -32.7696 -10.78 215.297 9e-06 
533 1 1 0.000329916 0.000255199 3.18542e-05 0 0 0 0.0214044 0.00359002 -0.00594573 -5.23343e-09 2.41449e-09 -5.36017e-09 -7.2331 22.5195 166.447 1.25e-05 
1096 1 1 0.000359997 0.000274179 1.54404e-05 0 0 0 -0.00386633 -0.0049413 0.00236773 3.58018e-09 -2.81931e-10 8.50851e-09 104.187 -180.854 -112.134 9e-06 
232 1 1 0.000366002 0.000258613 2.89611e-05 0 0 0 -0.0167633 -0.0083917 0.00729053 1.74209e-09 -1.16177e-08 4.24825e-09 -121.622 -302.831 -270.623 1.25e-05 
1042 1 1 0.000343156 0.000268419 1.27198e-05 0 0 0 -0.0179421 0.0353273 -0.0171103 1.09679e-08 -1.81297e-07 -6.23847e-08 28.9593 -121.995 -256.318 9e-06 
239 1 1 0.000389177 0.000262283 1.79074e-05 0 0 0 0.00452222 0.00217013 -0.00955538 0 0 -6.42063e-09 14.2532 98.4361 82.5809 1.25e-05 
1163 1 1 0.000408797 0.000266086 9.82045e-06 0 0 0 0.0118297 0.0249805 0.0119335 0 0 -2.39649e-09 -251.799 -13.5321 372.858 9e-06 
397 1 1 0.000383712 0.000244698 3.97764e-05 0 0 0 -0.0427196 -0.023391 0.0333597 5.40049e-09 -3.91114e-09 -3.50163e-09 -36.7375 -418.327 -213.602 1.25e-05 
199 1 1 0.000454158 0.000262387 2.85209e-05 0 0 0 0.0110234 -0.00491497 -0.00384204 1.22717e-09 -1.31556e-12 -8.98704e-10 0.327453 0.715552 0.0438401 1.25e-05 
841 1 1 0.00049088 0.000271447 1.3871e-05 0 0 0 -0.00563849 0.000492502 -0.00276662 -6.00182e-10 1.00038e-09 -1.36394e-09 -2.10296 2.94675 4.57841 9e-06 
1133 1 1 0.000473896 0.00027487 8.9961e-06 0 0 0 -0.00689481 -5.83145e-05 0.0001718 3.05943e-10 -3.96551e-11 -4.80921e-10 0.113992 0.0166095 6.04925 9e-06 
1183 1 1 0.000475529 0.000262033 2.20059e-05 0 0 0 0.0155189 0.00533117 -0.00474284 -9.36427e-10 4.18948e-09 6.60835e-10 -13.7908 65.8263 21.0553 9e-06 
908 1 1 0.000539651 0.000279304 1.77952e-05 0 0 0 -0.000474768 -0.000741596 0.00661759 0 0 -2.39649e-09 -10.8189 15.9068 3.59256 9e-06 
1225 1 1 0.000648837 0.000276262 8.99668e-06 0 0 0 0.00194022 0.000502565 -1.1523e-15 -1.16333e-10 -2.8715e-11 0 -0.0854884 0.330046 0.588834 9e-06 
1101 1 1 0.000677782 0.000270543 8.99668e-06 0 0 0 -0.00320762 0.000794758 1.0231e-07 1.16303e-10 -2.88166e-11 -9.14539e-14 -0.251006 -1.01305 10.3894 9e-06 
132 1 1 0.000685241 0.000269129 3.17748e-05 0 0 0 0.000178362 -2.48109e-05 -0.000218222 -4.78291e-09 -8.22458e-10 1.0943e-08 -0.111017 -0.35158 3.15997 1.5e-05 
716 1 1 0.000708164 0.000260471 3.22474e-05 0 0 0 0.00456247 -0.00150999 0.00373235 -4.97767e-11 8.77646e-10 -2.05751e-09 0.538103 9.64949 3.27827 9e-06 
407 1 1 0.000802335 0.000264907 3.2802e-05 0 0 0 0.00954155 -0.00483741 0.00501611 4.54872e-10 4.16212e-09 -3.79688e-09 0.942169 4.37356 2.48781 1.25e-05 
332 1 1 0.000851465 0.000260812 2.62163e-05 0 0 0 -0.0177122 -0.0052869 -0.00271419 -4.26822e-08 -5.88106e-08 -2.28765e-07 32.7946 -32.9473 -1.79992 1.25e-05 
988 1 1 0.000904247 0.000266974 1.44084e-05 0 0 0 -0.0705149 -0.0467143 -0.00741592 0 0 -2.39649e-09 -92.3657 103.756 761.779 9e-06 
142 1 1 0.000913927 0.000242066 3.62524e-05 0 0 0 -0.0178055 -0.0697001 0.0381647 0 0 -6.42063e-09 214.668 528.467 684.844 1.25e-05 
358 1 1 0.000923369 0.000261061 2.26531e-05 0 0 0 -0.0743076 -0.0321356 0.0309988 7.24804e-10 2.97348e-09 -2.20176e-09 130.255 378.889 763.524 1.25e-05 
788 1 1 0.000972083 0.000275167 3.00409e-05 0 0 0 0.0139117 -0.0150602 0.00490573 -1.0662e-07 6.64578e-08 9.25801e-08 428.253 286.289 148.042 9e-06 
580 1 1 0.000951821 0.000267455 1.59316e-05 0 0 0 0.0223782 0.00381664 -0.00128406 -2.07266e-10 1.11994e-09 -8.26576e-10 -0.115175 1.02955 0.955081 9e-06 
242 1 1 0.000942715 0.000244082 2.66614e-05 0 0 0 -0.0986989 -0.0764131 0.0500655 7.20559e-09 9.78507e-09 1.43399e-08 584.262 949.592 2489.24 1.25e-05 
1241 1 1 0.000990489 0.000237612 2.01082e-05 0 0 0 2.04189e-05 -0.000529366 -0.000756129 -6.26539e-10 -3.80149e-10 -2.10115e-09 0.724164 0.22331 -0.19909 9e-06 
228 1 1 0.000214306 0.000287472 3.35166e-05 0 0 0 -0.00069039 0.00330974 0.000403558 2.62417e-09 -3.07506e-10 -1.56883e-09 -227.395 -32.9343 -365.336 1.25e-05 
1126 1 1 0.000912549 0.000291002 3.38973e-05 0 0 0 0.00275133 -0.000456142 0.00112138 -6.24252e-11 1.26113e-09 -2.40539e-09 -84.4182 -327.698 6.67632 9e-06 
921 1 1 0.000937676 0.000276531 2.71953e-05 0 0 0 -0.0266682 -0.0472937 -0.0421518 0 0 -2.39649e-09 -192.643 -208.243 368.086 9e-06 
1056 1 1 0.000990959 0.000288618 2.66666e-05 0 0 0 -0.013128 0.0161416 -0.00455617 -5.52783e-08 -4.14404e-09 2.65181e-07 -443.731 -286.196 586.281 9e-06 
359 1 1 2.30139e-05 1.25021e-05 5.69247e-05 0 0 0 -0.00139043 -0.000587115 0.00387079 2.32618e-08 1.55442e-09 -5.81564e-08 19.4358 53.135 0.33284 1.25e-05 
874 1 1 3.28026e-05 3.20154e-05 5.27885e-05 0 0 0 1.96433e-07 1.1828e-08 -6.26935e-08 1.23326e-10 1.43438e-10 -1.05491e-10 3.05883 1.98731 4.94355 9e-06 
922 1 1 9.04284e-06 9.00471e-06 7.30525e-05 0 0 0 0.0156386 0.00413189 0.0729435 0 0 -2.39649e-09 31.0911 -45.6893 -10.7986 9e-06 
112 1 1 0.000105727 5.49086e-05 5.16496e-05 0 0 0 0.0174327 0.037853 -0.00915867 0 0 -1.10948e-08 -9.93697 4.37659 2.6178 1.5e-05 
1138 1 1 0.000130291 9.11651e-06 5.26123e-05 0 0 0 0.0211525 0.0104128 0.0217499 0 0 -2.39649e-09 2.95359 58.1925 -40.7645 9e-06 
551 1 1 0.000142086 1.83986e-05 6.31466e-05 0 0 0 0.167874 0.028051 -0.0910115 0 0 -2.39649e-09 -1173.58 116.295 1388.91 9e-06 
286 1 1 0.000193696 2.88954e-05 4.59774e-05 0 0 0 0.00971373 0.0458785 0.00474132 0 0 -6.42063e-09 5.51253 2.46188 -34.444 1.25e-05 
78 1 1 0.000240444 4.76874e-05 5.00192e-05 0 0 0 0.0273782 0.0165415 -0.00260632 -6.12848e-10 1.41484e-09 -1.52144e-09 -40.9534 81.077 435.562 1.5e-05 
711 1 1 0.000225069 9.00065e-06 5.62383e-05 0 0 0 -0.00684949 0.000272112 -0.0362619 0 0 -2.39649e-09 -29.3812 285.768 -29.5243 9e-06 
996 1 1 0.000344442 3.22848e-05 4.75192e-05 0 0 0 -0.0340445 0.00639797 0.0181962 9.31192e-10 -3.89338e-10 -7.35803e-10 -54.3546 16.7859 -106.966 9e-06 
225 1 1 0.000359927 1.29132e-05 5.01118e-05 0 0 0 0.0195057 0.0028245 -0.00232672 0 0 -6.42063e-09 4.98776 -441.501 -68.0326 1.25e-05 
443 1 1 0.000334863 1.25807e-05 5.1211e-05 0 0 0 0.0162219 0.00175523 -0.0155215 0 0 -6.42063e-09 -221.803 -412.162 -109.746 1.25e-05 
1117 1 1 0.000427307 3.37248e-05 4.44028e-05 0 0 0 0.00651688 0.00874765 -0.00742857 7.18345e-10 4.08015e-10 -1.071e-09 -0.61752 0.230101 -0.281235 9e-06 
690 1 1 0.00049683 2.93173e-05 6.44544e-05 0 0 0 0.0640884 0.151222 -0.0525068 0 0 -2.39649e-09 179.263 -98.1422 28.8773 9e-06 
86 1 1 0.000527251 4.06358e-05 5.92034e-05 0 0 0 -0.0142067 0.0281691 -0.000634484 -2.16089e-09 -1.19564e-09 -8.9092e-09 -267.067 -159.685 190.631 1.5e-05 
26 1 1 0.000549672 5.71382e-05 8.4677e-05 0 0 0 0.0127035 0.0751461 -0.0362024 0 0 -1.10948e-08 -1022.55 -13.7809 -826.714 1.5e-05 
855 1 1 0.000547634 9.69401e-06 6.1987e-05 0 0 0 -0.130054 0.0160549 -0.0442464 0 0 -2.39649e-09 -219.193 -0.939554 208.339 9e-06 
70 1 1 0.000573865 2.31066e-05 6.25758e-05 0 0 0 0.0291331 0.0358746 -0.0303918 1.29194e-07 1.09018e-07 -9.31775e-08 648.988 -462.729 188.672 1.5e-05 
1068 1 1 0.000559639 8.88126e-06 7.5417e-05 0 0 0 -0.0673198 0.0185743 -0.114448 -7.57545e-08 5.95529e-08 -7.64626e-08 364.51 -614.557 206.6 9e-06 
835 1 1 0.000647091 9.02626e-06 6.01978e-05 0 0 0 0.030921 -0.000525105 -0.0123318 0 0 -2.39649e-09 4.01634 11.8536 -17.1333 9e-06 
660 1 1 0.000667888 5.64655e-05 1.74336e-05 0 0 0 -0.0318346 -0.000308639 -0.048 0 0 -2.39649e-09 1.55154 -4.83629 -1.0629 9e-06 
434 1 1 0.000688278 1.52226e-05 5.15965e-05 0 0 0 0.000549545 0.00104374 -0.000577329 1.56506e-09 1.5187e-09 -1.33876e-09 -1.98306 -0.965092 -3.53281 1.25e-05 
413 1 1 0.00069527 3.96605e-05 4.5852e-05 0 0 0 0.0327408 -0.00400527 0.0150394 4.61979e-09 6.09366e-09 -1.80251e-08 104.421 130.085 -219.647 1.25e-05 
1169 1 1 0.000726845 9.04949e-06 5.08379e-05 0 0 0 0.000258404 -0.00222668 -0.000646273 5.73768e-11 -5.44157e-10 -2.01166e-10 1.25569 1.3501 -3.88184 9e-06 
1011 1 1 0.000708854 8.99893e-06 5.13515e-05 0 0 0 0.000266291 2.09091e-05 -3.05507e-05 2.00027e-10 -8.72723e-11 -3.7737e-11 -0.197107 0.998066 -2.89073 9e-06 
1235 1 1 0.000761464 3.18362e-05 5.26025e-05 0 0 0 0.00458095 0.0100369 0.00855848 4.51503e-10 -1.06698e-09 -1.51623e-09 -26.5738 44.1284 -40.2921 9e-06 
226 1 1 0.000821972 1.27676e-05 5.53223e-05 0 0 0 -0.021331 0.00494402 0.00492439 0 0 -6.42063e-09 1.55107 -35.8896 32.0871 1.25e-05 
325 1 1 0.000794938 5.68971e-05 7.0237e-05 0 0 0 -0.119855 0.0385767 -3.84953e-05 0 0 -6.42063e-09 -104.025 -421.137 -330.828 1.25e-05 
56 1 1 0.000891156 1.71895e-05 4.55697e-05 0 0 0 0.000207516 -0.00525607 -0.00245999 4.81422e-09 4.05554e-09 -1.56292e-08 -4.41569 -3.86078 5.07387 1.5e-05 
15 1 1 0.000911418 2.51967e-05 7.03885e-05 0 0 0 0.0342075 0.0538087 -0.0444866 4.04044e-10 4.08402e-09 -2.1005e-08 246.156 -1076.76 -611.008 1.8e-05 
249 1 1 2.59169e-05 7.15794e-05 5.73938e-05 0 0 0 0.00616803 0.00125998 0.00565919 -2.71817e-09 -1.52652e-09 -3.43612e-09 -39.1645 -15.2219 45.5977 1.25e-05 
398 1 1 6.03548e-05 6.83235e-05 5.38686e-05 0 0 0 0.00715311 0.023509 0.00562717 4.69956e-09 -1.19282e-08 2.66972e-08 -6.14758 1.91301 1.73725 1.25e-05 
185 1 1 0.000268385 6.25765e-05 3.80563e-05 0 0 0 -0.0256766 0.0234193 -0.0480984 0 0 -6.42063e-09 -241.116 1141.19 606.635 1.25e-05 
448 1 1 0.000345905 7.11356e-05 3.35857e-05 0 0 0 -0.00977179 0.0118777 0.0386869 0 0 -6.42063e-09 -46.2332 44.1995 -23.2311 1.25e-05 
14 1 1 0.000381697 7.4871e-05 4.91996e-05 0 0 0 -0.0338554 -0.0420784 -0.0361963 2.07026e-09 -3.09685e-08 2.64271e-08 27.3741 167.231 -205.858 1.8e-05 
101 1 1 0.000458728 6.67587e-05 5.37479e-05 0 0 0 -0.0391482 0.0197759 -0.0223715 -5.87043e-11 -1.41356e-10 -1.10972e-08 -342.618 -571.799 267.9 1.5e-05 
163 1 1 0.000617707 6.65938e-05 3.87597e-05 0 0 0 -0.000520498 0.00057206 -0.00065051 -1.42845e-09 5.9588e-10 -4.6374e-09 -374.849 -45.3367 743.579 1.25e-05 
264 1 1 0.000690792 9.86727e-05 5.2949e-05 0 0 0 -0.0141471 0.033603 -0.0738667 0 0 -6.42063e-09 13978 1856.87 1284.78 1.25e-05 
314 1 1 0.000807241 6.42667e-05 4.77859e-05 0 0 0 -0.0152079 0.0027144 0.00359107 6.31414e-09 8.50778e-09 8.56483e-09 -116.695 -410.877 -323.119 1.25e-05 
851 1 1 0.000793611 0.000107441 5.137e-05 0 0 0 -0.00492405 0.0446795 -0.00506537 3.92272e-10 2.03161e-10 -1.12756e-10 11.189 28.4583 210.711 9e-06 
210 1 1 0.000850737 6.32813e-05 4.55654e-05 0 0 0 -0.00684548 0.00624321 0.00528014 2.24397e-09 -1.88349e-09 -2.04927e-09 -0.220395 -0.355735 0.135543 1.25e-05 
1186 1 1 0.000849022 8.46427e-05 4.85812e-05 0 0 0 0.0210673 -0.00938762 -0.000864201 -3.7481e-11 -1.04097e-11 1.35052e-12 0.798908 8.51021 -72.9248 9e-06 
18 1 1 0.000877255 7.85628e-05 5.19615e-05 0 0 0 -0.0175424 0.0355947 0.0115603 -1.78662e-12 4.55501e-13 -1.9177e-08 84.6075 -73.0353 262.411 1.8e-05 
600 1 1 0.000908192 8.22651e-05 4.4565e-05 0 0 0 0.012713 0.0949228 0.0211713 -9.27362e-11 5.1563e-10 -5.48922e-09 -109.747 -178.019 1061.23 9e-06 
992 1 1 0.000928222 8.37093e-05 4.27576e-05 0 0 0 0.0272928 0.0113815 -0.00183601 -8.42974e-11 1.03192e-10 -1.38906e-09 32.3373 55.2418 288.728 9e-06 
793 1 1 0.000920398 9.60677e-06 4.42382e-05 0 0 0 -0.0628988 0.00473115 -0.0659268 0 0 -2.39649e-09 -242.54 4062.38 724.455 9e-06 
102 1 1 0.00096022 8.80911e-05 4.55425e-05 0 0 0 -0.0601753 0.0780156 0.0249381 1.36071e-07 1.70863e-07 4.104e-07 -201.165 -344.921 104.477 1.5e-05 
85 1 1 0.000113221 0.000142359 3.67699e-05 0 0 0 -0.0413061 -0.00111945 -0.0564517 1.27888e-09 1.2675e-08 -1.12505e-08 3.27927 -337.276 1.59956 1.5e-05 
843 1 1 0.000178327 0.000156431 2.93711e-05 0 0 0 0.00130207 -0.00758346 -0.00863611 5.78864e-10 -6.72539e-10 -1.6411e-09 0.159144 0.0669928 -0.242497 9e-06 
339 1 1 0.000198919 8.13115e-05 4.06655e-05 0 0 0 0.0261767 -0.05095 -0.0316127 0 0 -6.42063e-09 4.29651 -0.742826 6.57187 1.25e-05 
46 1 1 0.000234517 0.000102952 5.17722e-05 0 0 0 -0.00388079 0.00322268 -0.000375425 -1.17948e-09 -1.0173e-09 -2.29379e-10 7.44602 -1.31572 -92.3283 1.5e-05 
626 1 1 0.000294262 0.000118421 4.72054e-05 0 0 0 -0.0747142 0.0348627 -0.0206757 0 0 -2.39649e-09 -208.117 1090.68 2534.83 9e-06 
156 1 1 0.000251216 0.000140156 3.4161e-05 0 0 0 0.0227569 0.00341212 -0.0115638 1.68132e-09 2.05754e-09 -1.41156e-09 -0.0680832 0.7099 0.0799915 1.25e-05 
782 1 1 0.000399105 0.000136952 2.65036e-05 0 0 0 0.00256031 -0.000121705 0.000365043 -1.61428e-11 1.04426e-09 -1.68865e-09 1241.17 839.288 -474.225 9e-06 
268 1 1 0.000577731 0.000128448 5.08749e-05 0 0 0 0.0169111 0.0275232 -0.00745726 -7.28845e-11 7.629e-10 -2.95967e-09 -90.755 231.093 850.853 1.25e-05 
978 1 1 0.000596453 0.000141549 4.15336e-05 0 0 0 0.0265337 0.0329917 -0.011794 1.11247e-09 1.17451e-09 2.73607e-09 -8511.49 2722.52 -31.3937 9e-06 
82 1 1 0.000695132 0.000126344 4.77583e-05 0 0 0 0.00837619 0.0524013 -0.0317085 -2.36377e-09 1.23249e-08 1.18346e-08 652.015 -26.1779 38.2193 1.5e-05 
573 1 1 0.000757134 5.87484e-05 6.1613e-05 0 0 0 -0.0220188 -0.0219787 0.0471226 0 0 -2.39649e-09 104.094 136.899 90.4117 9e-06 
461 1 1 0.000953813 0.000131069 4.3804e-05 0 0 0 0.0636384 0.0721773 0.0586086 0 0 -6.42063e-09 -16.7437 25.8477 -13.6163 1.25e-05 
294 1 1 0.00097499 0.000116818 4.59724e-05 0 0 0 -0.00993184 0.0098384 -0.0114357 -3.04278e-09 -2.14653e-10 -3.63706e-09 503.365 -3.2182 -492.663 1.25e-05 
905 1 1 0.000146087 0.000175938 5.94878e-05 0 0 0 -0.033131 0.012879 0.0293179 0 0 -2.39649e-09 -422.647 -1499.64 -246.712 9e-06 
1050 1 1 0.00028862 0.000135109 5.10537e-05 0 0 0 -0.0355549 0.0497423 0.010314 0 0 -2.39649e-09 -101.025 954.484 2478.47 9e-06 
849 1 1 0.000288103 0.00019463 1.88193e-05 0 0 0 -0.0938247 -0.0952345 -0.0528364 0 0 -2.39649e-09 5.90742 419.963 -659.418 9e-06 
430 1 1 0.000713083 0.000149194 4.42141e-05 0 0 0 -0.0235416 0.0172091 -0.065387 0 0 -6.42063e-09 -5.31463 2372.54 -1271.88 1.25e-05 
1202 1 1 0.00070777 0.000173382 4.14155e-05 0 0 0 -0.00125189 -0.0260625 0.0028389 6.77769e-08 1.24567e-08 8.56219e-08 -76.1314 88.5672 -57.4863 9e-06 
1244 1 1 0.000806886 0.000149082 3.70209e-05 0 0 0 -0.0194124 0.0327011 -0.0224338 0 0 -2.39649e-09 -431.06 137.949 469.572 9e-06 
417 1 1 0.000844343 0.000151234 4.28453e-05 0 0 0 0.00546031 0.00336825 -0.0121776 0 0 -6.42063e-09 -112.993 -107.403 38.5679 1.25e-05 
13 1 1 0.00081923 0.000190628 3.81564e-05 0 0 0 -0.0230512 -0.0326248 -0.019679 0 0 -1.91719e-08 -7.79666 211.139 -353.593 1.8e-05 
514 1 1 0.000931435 0.000142681 4.64132e-05 0 0 0 0.0230553 0.0438043 -0.00470291 3.17867e-08 -1.11329e-07 5.89169e-07 -481.607 218.312 521.784 1.25e-05 
553 1 1 1.08097e-05 0.000242078 5.12145e-05 0 0 0 0.00132704 -0.0139793 0.00248637 -2.29745e-10 3.83942e-10 -6.38111e-10 17.7008 -13.0299 -77.2064 9e-06 
277 1 1 0.000128853 0.000211243 3.89222e-05 0 0 0 0.11129 0.141472 -0.0078987 -1.30891e-07 -1.34482e-07 -2.90455e-08 149.886 -262.859 -1119.16 1.25e-05 
11 1 1 0.000213759 0.0002113 4.71821e-05 0 0 0 0.0230073 -0.0168629 -0.00785702 0 0 -1.91719e-08 98.3003 676.914 521.061 1.8e-05 
668 1 1 0.000323504 0.000134309 8.21473e-05 0 0 0 0.127736 -0.211054 0.146211 0 0 -2.39649e-09 8541.51 2547.64 -2211.35 9e-06 
114 1 1 0.000381107 0.000188523 3.8907e-05 0 0 0 -0.0498796 0.0418945 -0.0698101 0 0 -1.10948e-08 -16.6958 1120.15 542.732 1.5e-05 
1090 1 1 0.000437457 0.000242785 3.79784e-05 0 0 0 -0.00934715 0.0143239 -0.0022182 2.05323e-10 3.50576e-10 -8.91968e-11 -37.8253 -62.7161 -248.713 9e-06 
57 1 1 0.000518195 0.000196235 4.57445e-05 0 0 0 0.0227362 -0.0505891 -0.0327109 2.60215e-07 -1.24581e-06 5.31224e-07 687.636 3.94962 459.932 1.5e-05 
1187 1 1 0.000606746 0.000184893 3.46001e-05 0 0 0 -0.0198761 0.0034576 0.0157436 8.90338e-10 -1.14751e-09 -1.16242e-09 -0.316591 -2.19315 -0.680859 9e-06 
703 1 1 0.00073099 0.000162012 8.14286e-05 0 0 0 0.144037 0.0843945 -0.198159 0 0 -2.39649e-09 1765.77 -6863.13 3424.72 9e-06 
470 1 1 0.000621023 0.000200899 4.14272e-05 0 0 0 -0.0657516 -0.0551281 0.00887151 -3.69225e-10 1.66895e-09 -5.38741e-09 -44.8723 41.2822 -161.905 1.25e-05 
813 1 1 0.000760615 0.000180698 1.10766e-05 0 0 0 0.0460485 -0.140047 -0.117541 1.35872e-08 3.54691e-08 -3.246e-08 -534.392 -2254.91 1827.93 9e-06 
1108 1 1 0.000705751 0.000185462 2.67964e-05 0 0 0 0.0059373 -0.0080722 -0.00858299 3.88518e-10 -9.95838e-10 -1.0619e-09 -0.44009 1.74262 -1.94014 9e-06 
1143 1 1 0.000777196 0.000246242 4.50087e-05 0 0 0 -0.0240138 0.0780155 -0.0218311 0 0 -2.39649e-09 136.304 275.834 1259.41 9e-06 
653 1 1 0.00086107 0.000139012 8.84288e-05 0 0 0 -0.00639626 -0.109789 0.138835 0 0 -2.39649e-09 2389.53 -1179.43 -685.875 9e-06 
107 1 1 0.000864454 0.000239225 4.42986e-05 0 0 0 0.0136179 -0.0134896 0.00424243 5.47151e-10 3.63189e-09 -3.30518e-09 30.8376 498.178 1005.41 1.5e-05 
726 1 1 0.000842487 0.000183969 2.41548e-05 0 0 0 -0.092467 -0.112979 -0.0876567 0 0 -2.39649e-09 2482.68 1001.47 -1210.78 9e-06 
673 1 1 0.000933848 0.000173859 2.34667e-05 0 0 0 -0.0979959 -0.0674896 0.00152201 0 0 -2.39649e-09 31.0713 -38.8326 62.5979 9e-06 
84 1 1 0.000970428 0.000205891 3.92957e-05 0 0 0 -0.0524834 -0.0119499 0.00822762 7.58473e-08 -8.09249e-08 1.81072e-08 63.9645 -315.269 43.4375 1.5e-05 
896 1 1 4.3783e-05 0.000238283 4.18898e-05 0 0 0 -0.00727184 -0.00147977 0.000560147 3.44047e-10 5.36059e-11 -4.59528e-09 3.40665 -0.0808223 0.455761 9e-06 
178 1 1 0.000187098 0.000262866 1.93109e-05 0 0 0 -0.0187403 0.0188516 -0.0383812 -9.69542e-11 6.0739e-09 -2.83953e-09 -1.02072 -12.2968 -5.57515 1.25e-05 
117 1 1 0.000222594 0.000251153 3.9649e-05 0 0 0 -0.0104843 0.0446175 -0.0298402 9.80428e-10 7.59049e-09 1.20578e-09 123.689 640.879 869.889 1.5e-05 
1246 1 1 0.000336924 0.000234243 3.81984e-05 0 0 0 0.0749825 0.102883 -0.0238286 0 0 -2.39649e-09 -117.193 21.9502 -444.219 9e-06 
682 1 1 0.000346423 0.000269429 3.21514e-05 0 0 0 0.026324 -0.00870962 -0.030258 0 0 -2.39649e-09 -69.5073 27.8081 193.448 9e-06 
805 1 1 0.000343467 0.000201012 3.34001e-05 0 0 0 -0.049943 -0.0808321 -0.0422308 1.02886e-10 2.30776e-09 -6.076e-09 23.9694 57.3508 -141.962 9e-06 
1071 1 1 0.000358936 0.000197238 4.20936e-05 0 0 0 -0.0769007 -0.028501 0.0304834 0 0 -2.39649e-09 1712.24 546.188 496.118 9e-06 
771 1 1 0.000349386 0.000248587 4.31253e-05 0 0 0 0.0136301 -0.0162067 0.0111109 0 0 -2.39649e-09 -213.702 -376.06 -396.23 9e-06 
208 1 1 0.000475652 0.000213688 5.46363e-05 0 0 0 -0.0504573 -0.0890431 0.00467798 0 0 -6.42063e-09 4.90534 99.4722 184.641 1.25e-05 
296 1 1 0.000477912 0.000249527 4.25998e-05 0 0 0 0.0213554 -0.0496041 0.0501087 3.75194e-08 -7.94417e-08 5.73598e-10 -130.521 -197.676 -133.729 1.25e-05 
65 1 1 0.000414222 0.00025499 3.61386e-05 0 0 0 -0.0327638 0.0218384 -0.0268941 -2.00066e-08 -2.31283e-09 -1.74521e-08 214.96 -208.294 -392.518 1.5e-05 
284 1 1 0.000496853 0.000227088 5.21675e-05 0 0 0 -0.0560015 -0.0604394 -0.00122037 4.27242e-10 4.69345e-10 5.69475e-09 10.3969 -13.3352 134.098 1.25e-05 
20 1 1 0.000539653 0.000253257 5.38257e-05 0 0 0 0.0278139 -0.0319401 0.0110232 -1.22606e-08 1.64761e-09 7.95882e-09 9.94068 71.9705 72.0219 1.8e-05 
826 1 1 0.00054394 0.000268984 3.20608e-05 0 0 0 0.00622261 -0.00319309 0.0114282 0 0 -2.39649e-09 -49.9189 132.625 153.529 9e-06 
812 1 1 0.000567334 0.000252161 4.26014e-05 0 0 0 0.0727101 -0.0189325 -0.0107684 0 0 -2.39649e-09 1.69821 3.34182 -19.9791 9e-06 
823 1 1 0.000522195 0.000268581 2.94795e-05 0 0 0 0.0629763 0.017716 -0.0526805 -9.4311e-10 -5.24208e-09 -4.73904e-09 -84.1068 -207.937 -177.965 9e-06 
331 1 1 0.000558827 0.000227407 5.06319e-05 0 0 0 0.0117802 -0.0396121 0.00457938 -3.56213e-09 3.52106e-09 1.91215e-08 120.726 -34.6856 -540.566 1.25e-05 
329 1 1 0.00059123 0.000268226 3.68538e-05 0 0 0 -0.0354741 -0.02859 -0.017118 0 0 -6.42063e-09 48.2175 137.211 -1127.96 1.25e-05 
457 1 1 0.00062019 0.000266256 4.13647e-05 0 0 0 -0.0246574 -0.00261286 -0.000894406 2.20347e-10 -1.51182e-09 -3.96156e-09 0.0125048 -0.388754 0.589198 1.25e-05 
288 1 1 0.00069693 0.000246668 5.09684e-05 0 0 0 0.00756072 -0.0326496 0.0128149 7.52825e-11 4.81315e-10 -5.37364e-09 59.5953 224.992 691.34 1.25e-05 
1094 1 1 0.000620319 0.000221745 4.69354e-05 0 0 0 -0.0548945 -0.0517357 -0.00113564 6.05973e-10 -5.48814e-10 -7.83947e-10 123.467 -171.785 370.034 9e-06 
584 1 1 0.000717569 0.00021208 4.64438e-05 0 0 0 0.0217236 -0.108766 -0.0140011 0 0 -2.39649e-09 -226.796 -108.171 -2326.23 9e-06 
887 1 1 0.000840431 0.000206813 4.36597e-05 0 0 0 -0.0203219 -0.0367535 -0.00135508 0 0 -2.39649e-09 1327.34 1662.86 -606.446 9e-06 
223 1 1 0.000810015 0.000192554 7.58073e-05 0 0 0 -0.00531308 -0.0821617 0.045916 0 0 -6.42063e-09 472.941 377.68 39.3301 1.25e-05 
92 1 1 0.000873621 0.000198583 7.84788e-05 0 0 0 0.0124003 -0.112767 0.0220457 0 0 -1.10948e-08 20.3866 29.456 593.944 1.5e-05 
497 1 1 0.000931513 0.000169609 5.89745e-05 0 0 0 -0.101282 -0.161226 -0.0533765 0 0 -6.42063e-09 299.724 -407.488 -392.654 1.25e-05 
12 1 1 0.000888509 0.000206167 4.84508e-05 0 0 0 -0.0279479 -0.0449993 -0.00367037 1.25763e-07 1.19521e-07 1.4917e-07 240.707 73.7768 192.557 1.8e-05 
929 1 1 0.000976551 0.000254425 3.48892e-05 0 0 0 -0.131841 0.036159 -0.0167655 0 0 -2.39649e-09 -53.5008 -92.6412 9.81356 9e-06 
69 1 1 1.51904e-05 0.000285005 6.48769e-05 0 0 0 0.000332718 3.8089e-06 0.000167469 -5.47198e-09 -6.55954e-10 -2.20983e-09 -0.261598 0.479694 0.223088 1.5e-05 
1176 1 1 0.000162141 0.000290575 5.10193e-05 0 0 0 -0.0541917 -0.00566293 -0.181969 0 0 -2.39649e-09 300.29 -1116.68 -16.9252 9e-06 
261 1 1 0.000188344 0.000283553 3.33828e-05 0 0 0 -0.000267316 -0.00298768 -0.000732197 -1.17881e-09 -1.50847e-09 1.68033e-09 0.476332 1.38977 0.170031 1.25e-05 